80
Dimer: struct; Energy: -4906.06228 eV
C       -1.29972200       1.48833600      -0.03228100
C       -0.45010500       2.63965400       0.01843500
C        0.99654200       2.45238200       0.05441800
C       -0.76903400       0.15867800      -0.04877100
C        0.67752200      -0.02870400      -0.01297900
C        1.52709100       1.12265000       0.03785500
C        2.93347700       0.94084900       0.07277000
C        3.48023700      -0.37253000       0.05696900
C        3.79427800       2.07240500       0.12351100
C        5.26507800       1.88272800       0.16006300
C        1.24802600      -1.29258500      -0.02698300
C        2.64560500      -1.46904700       0.00777700
C        1.86805800       3.52983300       0.10418700
C        3.26457400       3.34539700       0.13880400
C        4.95087500      -0.56291500       0.09346700
N        5.75909100       0.57580800       0.14293500
O        6.06925500       2.83065500       0.20492200
O        5.48910000      -1.68427500       0.08194900
C       -1.02041300       3.90352800       0.03216900
C       -2.41794600       4.08003500      -0.00262400
C       -2.70602800       1.67000700      -0.06716000
C       -3.25245200       2.98347100      -0.05156500
C       -3.56691500       0.53850500      -0.11766500
C       -3.03687800      -0.73433100      -0.13279200
C       -1.64041100      -0.91883000      -0.09829200
C       -4.72314700       3.17392200      -0.08803700
C       -5.03773600       0.72818300      -0.15412500
N       -5.53143900       2.03522700      -0.13722100
O       -5.26133100       4.29529300      -0.07673500
O       -5.84203300      -0.21964700      -0.19870900
H        0.62972700      -2.20233100      -0.06573200
H        3.07286500      -2.48716200      -0.00439800
H        1.49989900       4.56697900       0.11841200
H        3.93550500       4.22152900       0.17822500
H        6.75033500       0.44779700       0.16755800
H       -0.40199700       4.81321100       0.07071000
H       -2.84532000       5.09816700       0.00933800
H       -3.70773700      -1.61056600      -0.17200800
H       -1.27202900      -1.95588300      -0.11238600
H       -6.52266300       2.16338500      -0.16179200
C        7.82627354      10.53901900       4.71737403
C        7.91323527      10.00652722       3.39115970
C        7.95931908       8.55943400       3.20963670
C        7.78318369       9.69086612       5.87005439
C        7.82907299       8.24383258       5.68865578
C        7.91615307       7.71139676       4.36242172
C        7.96089401       6.30464188       4.18569819
C        7.91904667       5.44503141       5.31860560
C        8.04751862       5.75635482       2.87579382
C        8.09435742       4.28528256       2.69054108
C        7.79045193       7.37369955       6.76774939
C        7.83507730       5.97681085       6.58806995
C        8.04377951       7.98716298       1.94936290
C        8.08805949       6.58929673       1.77766220
C        7.96581283       3.97393764       5.13407722
N        8.05080592       3.47834242       3.83042396
O        8.17011526       3.74558510       1.57238815
O        7.93277723       3.17090544       6.08345333
C        7.95158824      10.87646780       2.31201662
C        7.90693142      12.27332317       2.49164010
C        7.78156627      11.94566389       4.89420416
C        7.82321311      12.80496978       3.76112473
C        7.69517800      12.49404864       6.20408400
C        7.65481020      11.66082431       7.30198526
C        7.69897120      10.26298919       7.13035481
C        7.77647395      14.27613541       3.94560426
C        7.64843098      13.96514182       6.38934342
N        7.69176467      14.77181228       5.24925686
O        7.80929431      15.07912989       2.99620163
O        7.57294917      14.50498085       7.50743976
H        7.72359785       7.74312435       7.80239366
H        7.80274602       5.30714329       7.46542823
H        8.07921472       8.60442519       1.03878784
H        8.15530894       6.16047969       0.76232818
H        8.08235742       2.48687002       3.70574541
H        8.01823406      10.50691313       1.27739853
H        7.93904904      12.94310454       1.61428854
H        7.58776392      12.08954652       8.31740612
H        7.66367144       9.64553504       8.04078721
H        7.66026889      15.76330251       5.37378950
