80
Dimer: struct; Energy: -4906.06228 eV
C       -1.29972200       1.48833600      -0.03228100
C       -0.45010500       2.63965400       0.01843500
C        0.99654200       2.45238200       0.05441800
C       -0.76903400       0.15867800      -0.04877100
C        0.67752200      -0.02870400      -0.01297900
C        1.52709100       1.12265000       0.03785500
C        2.93347700       0.94084900       0.07277000
C        3.48023700      -0.37253000       0.05696900
C        3.79427800       2.07240500       0.12351100
C        5.26507800       1.88272800       0.16006300
C        1.24802600      -1.29258500      -0.02698300
C        2.64560500      -1.46904700       0.00777700
C        1.86805800       3.52983300       0.10418700
C        3.26457400       3.34539700       0.13880400
C        4.95087500      -0.56291500       0.09346700
N        5.75909100       0.57580800       0.14293500
O        6.06925500       2.83065500       0.20492200
O        5.48910000      -1.68427500       0.08194900
C       -1.02041300       3.90352800       0.03216900
C       -2.41794600       4.08003500      -0.00262400
C       -2.70602800       1.67000700      -0.06716000
C       -3.25245200       2.98347100      -0.05156500
C       -3.56691500       0.53850500      -0.11766500
C       -3.03687800      -0.73433100      -0.13279200
C       -1.64041100      -0.91883000      -0.09829200
C       -4.72314700       3.17392200      -0.08803700
C       -5.03773600       0.72818300      -0.15412500
N       -5.53143900       2.03522700      -0.13722100
O       -5.26133100       4.29529300      -0.07673500
O       -5.84203300      -0.21964700      -0.19870900
H        0.62972700      -2.20233100      -0.06573200
H        3.07286500      -2.48716200      -0.00439800
H        1.49989900       4.56697900       0.11841200
H        3.93550500       4.22152900       0.17822500
H        6.75033500       0.44779700       0.16755800
H       -0.40199700       4.81321100       0.07071000
H       -2.84532000       5.09816700       0.00933800
H       -3.70773700      -1.61056600      -0.17200800
H       -1.27202900      -1.95588300      -0.11238600
H       -6.52266300       2.16338500      -0.16179200
C       10.14619190       6.68733600       3.42220749
C        9.43785938       6.06679647       2.34371315
C        8.14760896       6.61260146       1.93566427
C        9.62351294       7.82846424       4.11106532
C        8.33342898       8.37443971       3.70300711
C        7.62508302       7.75378721       2.62458044
C        6.37078636       8.28425334       2.22767013
C        5.83456099       9.41783351       2.89969612
C        5.65167571       7.68149000       1.15831134
C        4.33993534       8.23589906       0.74293940
C        7.77809986       9.47776944       4.33335558
C        6.53183931      10.00180097       3.93611539
C        7.41687659       6.05321626       0.89834264
C        6.17121051       6.58285383       0.50684301
C        4.52295247       9.97274551       2.48483417
N        3.85074311       9.34985771       1.43008508
O        3.66384052       7.75424845      -0.18344446
O        4.00181315      10.96064874       3.03230845
C        9.99314782       4.96369577       1.71312540
C       11.23938646       4.43966525       2.11029667
C       11.40039469       6.15696675       3.81919778
C       11.93643074       5.02355074       3.14685593
C       12.11946881       6.75952028       4.88870029
C       11.59957065       7.85803970       5.54003776
C       10.35400087       8.38778051       5.14852684
C       13.24807978       4.46855753       3.56171121
C       13.43118299       6.20504783       5.30413705
N       13.92021930       5.09122809       4.61664778
O       13.76928851       3.48079088       3.01407887
O       14.10725425       6.68642313       6.23067284
H        8.29083838       9.98309213       5.16593057
H        6.11314304      10.88151101       4.45578948
H        7.78392918       5.17592454       0.34422453
H        5.61048379       6.11739056      -0.32275882
H        2.96669357       9.72363847       1.15025991
H        9.48040473       4.45858154       0.88041833
H       11.65828636       3.56003939       1.59052208
H       12.16012995       8.32347410       6.36980976
H        9.98669476       9.26499027       5.70257750
H       14.80423362       4.71731384       4.89639777
