80
Dimer: struct; Energy: -4906.06228 eV
C       -1.29972200       1.48833600      -0.03228100
C       -0.45010500       2.63965400       0.01843500
C        0.99654200       2.45238200       0.05441800
C       -0.76903400       0.15867800      -0.04877100
C        0.67752200      -0.02870400      -0.01297900
C        1.52709100       1.12265000       0.03785500
C        2.93347700       0.94084900       0.07277000
C        3.48023700      -0.37253000       0.05696900
C        3.79427800       2.07240500       0.12351100
C        5.26507800       1.88272800       0.16006300
C        1.24802600      -1.29258500      -0.02698300
C        2.64560500      -1.46904700       0.00777700
C        1.86805800       3.52983300       0.10418700
C        3.26457400       3.34539700       0.13880400
C        4.95087500      -0.56291500       0.09346700
N        5.75909100       0.57580800       0.14293500
O        6.06925500       2.83065500       0.20492200
O        5.48910000      -1.68427500       0.08194900
C       -1.02041300       3.90352800       0.03216900
C       -2.41794600       4.08003500      -0.00262400
C       -2.70602800       1.67000700      -0.06716000
C       -3.25245200       2.98347100      -0.05156500
C       -3.56691500       0.53850500      -0.11766500
C       -3.03687800      -0.73433100      -0.13279200
C       -1.64041100      -0.91883000      -0.09829200
C       -4.72314700       3.17392200      -0.08803700
C       -5.03773600       0.72818300      -0.15412500
N       -5.53143900       2.03522700      -0.13722100
O       -5.26133100       4.29529300      -0.07673500
O       -5.84203300      -0.21964700      -0.19870900
H        0.62972700      -2.20233100      -0.06573200
H        3.07286500      -2.48716200      -0.00439800
H        1.49989900       4.56697900       0.11841200
H        3.93550500       4.22152900       0.17822500
H        6.75033500       0.44779700       0.16755800
H       -0.40199700       4.81321100       0.07071000
H       -2.84532000       5.09816700       0.00933800
H       -3.70773700      -1.61056600      -0.17200800
H       -1.27202900      -1.95588300      -0.11238600
H       -6.52266300       2.16338500      -0.16179200
C        4.97002674      11.88321868       4.60765076
C        4.94473999      10.53056667       4.13898519
C        3.77811545      10.05737152       3.40126800
C        3.88241904      12.78411977       4.37232379
C        2.71588468      12.31111785       3.63449988
C        2.69060090      10.95841811       3.16595774
C        1.55661121      10.49819479       2.44870317
C        0.46570886      11.37824016       2.20454589
C        1.51264752       9.15743322       1.97499692
C        0.32694383       8.67573839       1.22490164
C        1.63334974      13.13860932       3.37673628
C        0.50867395      12.67769996       2.66382599
C        3.69793141       8.75802619       2.92357565
C        2.56983721       8.30435268       2.21149718
C       -0.72023131      10.89723003       1.45452600
N       -0.72161198       9.57335385       1.00764770
O        0.22873774       7.51621114       0.78543527
O       -1.70437825      11.61738548       1.20937710
C        6.02724572       9.70308387       4.39641647
C        7.15192638      10.16394612       5.10927211
C        6.10387338      12.34350596       5.32489890
C        7.19466613      11.46331100       5.56869817
C        6.14782614      13.68418296       5.79884751
C        5.09040578      14.53693576       5.56230074
C        3.96236427      14.08337403       4.85015307
C        8.38067166      11.94428147       6.31876741
C        7.33350577      14.16585639       6.54903150
N        8.38199949      13.26807534       6.76592437
O        9.36488823      11.22416853       6.56371186
O        7.43173169      15.32526481       6.98878928
H        1.61420974      14.18429073       3.71968960
H       -0.33949580      13.35841185       2.47278439
H        4.51241902       8.03526193       3.08369117
H        2.53251547       7.26429479       1.84244927
H       -1.52080595       9.24887042       0.50212095
H        6.04635719       8.65747235       4.05322815
H        8.00028028       9.48333712       5.30019474
H        5.12753149      15.57698396       5.93148755
H        3.14770748      14.80592213       4.69002366
H        9.18123479      13.59240935       7.27147714
