80
Dimer: struct; Energy: -4906.06228 eV
C       -1.29972200       1.48833600      -0.03228100
C       -0.45010500       2.63965400       0.01843500
C        0.99654200       2.45238200       0.05441800
C       -0.76903400       0.15867800      -0.04877100
C        0.67752200      -0.02870400      -0.01297900
C        1.52709100       1.12265000       0.03785500
C        2.93347700       0.94084900       0.07277000
C        3.48023700      -0.37253000       0.05696900
C        3.79427800       2.07240500       0.12351100
C        5.26507800       1.88272800       0.16006300
C        1.24802600      -1.29258500      -0.02698300
C        2.64560500      -1.46904700       0.00777700
C        1.86805800       3.52983300       0.10418700
C        3.26457400       3.34539700       0.13880400
C        4.95087500      -0.56291500       0.09346700
N        5.75909100       0.57580800       0.14293500
O        6.06925500       2.83065500       0.20492200
O        5.48910000      -1.68427500       0.08194900
C       -1.02041300       3.90352800       0.03216900
C       -2.41794600       4.08003500      -0.00262400
C       -2.70602800       1.67000700      -0.06716000
C       -3.25245200       2.98347100      -0.05156500
C       -3.56691500       0.53850500      -0.11766500
C       -3.03687800      -0.73433100      -0.13279200
C       -1.64041100      -0.91883000      -0.09829200
C       -4.72314700       3.17392200      -0.08803700
C       -5.03773600       0.72818300      -0.15412500
N       -5.53143900       2.03522700      -0.13722100
O       -5.26133100       4.29529300      -0.07673500
O       -5.84203300      -0.21964700      -0.19870900
H        0.62972700      -2.20233100      -0.06573200
H        3.07286500      -2.48716200      -0.00439800
H        1.49989900       4.56697900       0.11841200
H        3.93550500       4.22152900       0.17822500
H        6.75033500       0.44779700       0.16755800
H       -0.40199700       4.81321100       0.07071000
H       -2.84532000       5.09816700       0.00933800
H       -3.70773700      -1.61056600      -0.17200800
H       -1.27202900      -1.95588300      -0.11238600
H       -6.52266300       2.16338500      -0.16179200
C        3.14168671      12.72492508       0.76688596
C        3.72386420      12.96535109      -0.51888968
C        3.89070399      11.84767323      -1.44198979
C        2.71872396      11.41834204       1.17165176
C        2.88533520      10.30068118       0.24861750
C        3.46762780      10.54114424      -1.03710426
C        3.62985686       9.45476924      -1.93469176
C        3.21566530       8.14884872      -1.55105455
C        4.20645623       9.67350076      -3.21674546
C        4.37631371       8.53768418      -4.15569976
C        2.49403882       9.01380153       0.58609939
C        2.65683235       7.93722257      -0.30835584
C        4.44829973      12.02064209      -2.69980000
C        4.60792467      10.93910351      -3.58876913
C        3.38519396       7.01264485      -2.48948701
N        3.95589132       7.27225453      -3.73818937
O        4.87308167       8.66438249      -5.28903453
O        3.04332283       5.84906325      -2.21295663
C        4.11493651      14.25214166      -0.85660227
C        3.95213528      15.32872764       0.03778140
C        2.97945487      13.81114661       1.66450563
C        3.39353418      15.11693782       1.28050340
C        2.40308059      13.59246955       2.94667059
C        2.00186804      12.32672370       3.31841708
C        2.16135550      11.24519412       2.42948080
C        3.22404545      16.25322275       2.21894664
C        2.23330533      14.72828457       3.88567117
N        2.65360938      15.99363359       3.46778509
O        3.56572721      17.41682319       1.94230561
O        1.73680923      14.60168747       5.01912956
H        2.04262667       8.78774694       1.56413789
H        2.33630038       6.92256672      -0.01341475
H        4.78584815      13.00861663      -3.04820003
H        5.05511062      11.10543982      -4.58459374
H        4.07029165       6.50664663      -4.37089379
H        4.56615045      14.47810940      -1.83475946
H        4.27246123      16.34351080      -0.25716067
H        1.55484373      12.16022838       4.31432172
H        1.82399256      10.25711198       2.77770890
H        2.53931302      16.75932381       4.10040508
