80
Dimer: struct; Energy: -4906.06228 eV
C       -1.29972200       1.48833600      -0.03228100
C       -0.45010500       2.63965400       0.01843500
C        0.99654200       2.45238200       0.05441800
C       -0.76903400       0.15867800      -0.04877100
C        0.67752200      -0.02870400      -0.01297900
C        1.52709100       1.12265000       0.03785500
C        2.93347700       0.94084900       0.07277000
C        3.48023700      -0.37253000       0.05696900
C        3.79427800       2.07240500       0.12351100
C        5.26507800       1.88272800       0.16006300
C        1.24802600      -1.29258500      -0.02698300
C        2.64560500      -1.46904700       0.00777700
C        1.86805800       3.52983300       0.10418700
C        3.26457400       3.34539700       0.13880400
C        4.95087500      -0.56291500       0.09346700
N        5.75909100       0.57580800       0.14293500
O        6.06925500       2.83065500       0.20492200
O        5.48910000      -1.68427500       0.08194900
C       -1.02041300       3.90352800       0.03216900
C       -2.41794600       4.08003500      -0.00262400
C       -2.70602800       1.67000700      -0.06716000
C       -3.25245200       2.98347100      -0.05156500
C       -3.56691500       0.53850500      -0.11766500
C       -3.03687800      -0.73433100      -0.13279200
C       -1.64041100      -0.91883000      -0.09829200
C       -4.72314700       3.17392200      -0.08803700
C       -5.03773600       0.72818300      -0.15412500
N       -5.53143900       2.03522700      -0.13722100
O       -5.26133100       4.29529300      -0.07673500
O       -5.84203300      -0.21964700      -0.19870900
H        0.62972700      -2.20233100      -0.06573200
H        3.07286500      -2.48716200      -0.00439800
H        1.49989900       4.56697900       0.11841200
H        3.93550500       4.22152900       0.17822500
H        6.75033500       0.44779700       0.16755800
H       -0.40199700       4.81321100       0.07071000
H       -2.84532000       5.09816700       0.00933800
H       -3.70773700      -1.61056600      -0.17200800
H       -1.27202900      -1.95588300      -0.11238600
H       -6.52266300       2.16338500      -0.16179200
C        4.11166726       4.82354529       5.80621922
C        3.74025505       3.45422577       5.99849849
C        2.42157404       3.00891384       5.56039942
C        3.22502696       5.76765003       5.19595100
C        1.90646284       5.32243673       4.75766899
C        1.53505746       3.95312899       4.95007993
C        0.25318736       3.51996856       4.52420046
C       -0.64218103       4.44297333       3.91548197
C       -0.13434098       2.16332597       4.70672347
C       -1.47478880       1.70993583       4.26152342
C        1.00626055       6.19195422       4.16047449
C       -0.26622634       5.75781021       3.73872781
C        2.00743326       1.69527404       5.72088507
C        0.73329439       1.26859598       5.29663527
C       -1.98270123       3.99026688       3.47004159
N       -2.32219153       2.64950042       3.66864140
O       -1.87172512       0.53844159       4.39313413
O       -2.80928972       4.74822474       2.93197244
C        4.64039247       2.58457798       6.59539269
C        5.91286756       3.01865617       7.01711183
C        5.39341177       5.25679337       6.23206492
C        6.28860014       4.33352982       6.84053205
C        5.78093926       6.61347115       6.04979641
C        4.91300397       7.50795368       5.45999231
C        3.63893236       7.08132929       5.03563002
C        7.62918083       4.78620742       7.28603399
C        7.12136939       7.06688736       6.49508541
N        7.96863432       6.12703714       7.08772030
O        8.45582238       4.02818011       7.82390110
O        7.51833291       8.23840097       6.36378826
H        1.25364051       7.25156846       3.99478279
H       -0.96327091       6.47186679       3.26595985
H        2.65914888       0.93958153       6.18522418
H        0.42937727       0.21631740       5.43682760
H       -3.22563909       2.34409396       3.36852945
H        4.39297279       1.52492874       6.76084331
H        6.61009916       2.30459161       7.48972614
H        5.21674501       8.56033253       5.31992945
H        2.98700435       7.83687008       4.57137702
H        8.87209264       6.43231544       7.38792265
