80
Dimer: struct; Energy: -4906.06228 eV
C       -1.29972200       1.48833600      -0.03228100
C       -0.45010500       2.63965400       0.01843500
C        0.99654200       2.45238200       0.05441800
C       -0.76903400       0.15867800      -0.04877100
C        0.67752200      -0.02870400      -0.01297900
C        1.52709100       1.12265000       0.03785500
C        2.93347700       0.94084900       0.07277000
C        3.48023700      -0.37253000       0.05696900
C        3.79427800       2.07240500       0.12351100
C        5.26507800       1.88272800       0.16006300
C        1.24802600      -1.29258500      -0.02698300
C        2.64560500      -1.46904700       0.00777700
C        1.86805800       3.52983300       0.10418700
C        3.26457400       3.34539700       0.13880400
C        4.95087500      -0.56291500       0.09346700
N        5.75909100       0.57580800       0.14293500
O        6.06925500       2.83065500       0.20492200
O        5.48910000      -1.68427500       0.08194900
C       -1.02041300       3.90352800       0.03216900
C       -2.41794600       4.08003500      -0.00262400
C       -2.70602800       1.67000700      -0.06716000
C       -3.25245200       2.98347100      -0.05156500
C       -3.56691500       0.53850500      -0.11766500
C       -3.03687800      -0.73433100      -0.13279200
C       -1.64041100      -0.91883000      -0.09829200
C       -4.72314700       3.17392200      -0.08803700
C       -5.03773600       0.72818300      -0.15412500
N       -5.53143900       2.03522700      -0.13722100
O       -5.26133100       4.29529300      -0.07673500
O       -5.84203300      -0.21964700      -0.19870900
H        0.62972700      -2.20233100      -0.06573200
H        3.07286500      -2.48716200      -0.00439800
H        1.49989900       4.56697900       0.11841200
H        3.93550500       4.22152900       0.17822500
H        6.75033500       0.44779700       0.16755800
H       -0.40199700       4.81321100       0.07071000
H       -2.84532000       5.09816700       0.00933800
H       -3.70773700      -1.61056600      -0.17200800
H       -1.27202900      -1.95588300      -0.11238600
H       -6.52266300       2.16338500      -0.16179200
C        7.20628801      10.95731520       1.51648241
C        6.38886062      10.47898096       0.44272121
C        5.14733068       9.77851709       0.75434101
C        6.83904317      10.76739160       2.88723123
C        5.59751296      10.06714257       3.19895449
C        4.78018008       9.58872524       2.12515217
C        3.57315052       8.90780615       2.42784191
C        3.19076147       8.70925094       3.78376042
C        2.74748910       8.42487286       1.37473667
C        1.48515749       7.71271890       1.69084060
C        5.19105470       9.85432355       4.50760489
C        3.99127345       9.17747633       4.80421400
C        4.31616217       9.29319576      -0.24392742
C        3.11789536       8.61722868       0.06053452
C        1.92860455       7.99724317       4.10055612
N        1.14805944       7.53972889       3.03576493
O        0.72145875       7.26733449       0.81581173
O        1.54018687       7.79267119       5.26440709
C        6.79502071      10.69194747      -0.86590272
C        7.99474239      11.36880095      -1.16255237
C        8.41327449      11.63816937       1.21392878
C        8.79526458      11.83674722      -0.14204337
C        9.23911756      12.12093240       2.26697058
C        8.86848311      11.92826948       3.58104465
C        7.67020985      11.25243072       3.88556619
C       10.05747849      12.54875646      -0.45891000
C       10.50151057      12.83301480       1.95086298
N       10.83822099      13.00605422       0.60584407
O       10.44575822      12.75349989      -1.62276637
O       11.26543565      13.27820894       2.82578227
H        5.79088691      10.20637861       5.36065323
H        3.69187536       9.02189926       5.85560073
H        4.56295024       9.41878046      -1.30916888
H        2.47476546       8.24111944      -0.75447191
H        0.29732169       7.05978919       3.24898065
H        6.19499337      10.34002374      -1.71887623
H        8.29413990      11.52461893      -2.21396393
H        9.51165379      12.30416725       4.39615802
H        7.42327917      11.12662320       4.95073311
H       11.68895354      13.48593387       0.39248316
