80
Dimer: struct; Energy: -4906.06228 eV
C       -1.29972200       1.48833600      -0.03228100
C       -0.45010500       2.63965400       0.01843500
C        0.99654200       2.45238200       0.05441800
C       -0.76903400       0.15867800      -0.04877100
C        0.67752200      -0.02870400      -0.01297900
C        1.52709100       1.12265000       0.03785500
C        2.93347700       0.94084900       0.07277000
C        3.48023700      -0.37253000       0.05696900
C        3.79427800       2.07240500       0.12351100
C        5.26507800       1.88272800       0.16006300
C        1.24802600      -1.29258500      -0.02698300
C        2.64560500      -1.46904700       0.00777700
C        1.86805800       3.52983300       0.10418700
C        3.26457400       3.34539700       0.13880400
C        4.95087500      -0.56291500       0.09346700
N        5.75909100       0.57580800       0.14293500
O        6.06925500       2.83065500       0.20492200
O        5.48910000      -1.68427500       0.08194900
C       -1.02041300       3.90352800       0.03216900
C       -2.41794600       4.08003500      -0.00262400
C       -2.70602800       1.67000700      -0.06716000
C       -3.25245200       2.98347100      -0.05156500
C       -3.56691500       0.53850500      -0.11766500
C       -3.03687800      -0.73433100      -0.13279200
C       -1.64041100      -0.91883000      -0.09829200
C       -4.72314700       3.17392200      -0.08803700
C       -5.03773600       0.72818300      -0.15412500
N       -5.53143900       2.03522700      -0.13722100
O       -5.26133100       4.29529300      -0.07673500
O       -5.84203300      -0.21964700      -0.19870900
H        0.62972700      -2.20233100      -0.06573200
H        3.07286500      -2.48716200      -0.00439800
H        1.49989900       4.56697900       0.11841200
H        3.93550500       4.22152900       0.17822500
H        6.75033500       0.44779700       0.16755800
H       -0.40199700       4.81321100       0.07071000
H       -2.84532000       5.09816700       0.00933800
H       -3.70773700      -1.61056600      -0.17200800
H       -1.27202900      -1.95588300      -0.11238600
H       -6.52266300       2.16338500      -0.16179200
C        1.82331542      10.52847574       4.33296468
C        2.30846443       9.70359133       3.26799969
C        2.10525905       8.26043669       3.33987032
C        1.14434322       9.97640811       5.46615052
C        0.94092819       8.53336561       5.53803940
C        1.42620281       7.70851460       4.47309951
C        1.22871281       6.30553763       4.54270961
C        0.55615724       5.73778486       5.66051387
C        1.70366926       5.46914453       3.49445633
C        1.49737407       4.00191435       3.56687138
C        0.29020938       7.94287491       6.61086365
C        0.09593845       6.54876354       6.67633482
C        2.55344302       7.41240671       2.33842435
C        2.35549889       6.01920058       2.41099645
C        0.34950643       4.27070734       5.73354590
N        0.83204513       3.48677540       4.68237637
O        1.88876994       3.21857395       2.68343171
O       -0.23033736       3.71489988       6.68334920
C        2.95892151      10.29392171       2.19504444
C        3.15317920      11.68799257       2.12951484
C        2.02076934      11.93136609       4.26348024
C        2.69314743      12.49881352       3.14548150
C        1.54605482      12.76781571       5.31179895
C        0.89440893      12.21741166       6.39516987
C        0.69633769      10.82426762       6.46774873
C        2.89985732      13.96594566       3.07240697
C        1.75243383      14.23505509       5.23942625
N        2.41758997      14.74991757       4.12368598
O        3.47951127      14.52174005       2.12249299
O        1.36133755      15.01848169       6.12291341
H       -0.09744180       8.54190195       7.44891262
H       -0.42570545       6.10524916       7.54261429
H        3.07953224       7.79744839       1.45163899
H        2.72290502       5.36718773       1.59908409
H        0.69292106       2.49793496       4.73133385
H        3.34634815       9.69480366       1.35694834
H        3.67465464      12.13164735       1.26313259
H        0.52712909      12.86932498       7.20726100
H        0.17038376      10.43899015       7.35449368
H        2.55682529      15.73873468       4.07461991
