80
Dimer: struct; Energy: -4906.06228 eV
C       -1.29972200       1.48833600      -0.03228100
C       -0.45010500       2.63965400       0.01843500
C        0.99654200       2.45238200       0.05441800
C       -0.76903400       0.15867800      -0.04877100
C        0.67752200      -0.02870400      -0.01297900
C        1.52709100       1.12265000       0.03785500
C        2.93347700       0.94084900       0.07277000
C        3.48023700      -0.37253000       0.05696900
C        3.79427800       2.07240500       0.12351100
C        5.26507800       1.88272800       0.16006300
C        1.24802600      -1.29258500      -0.02698300
C        2.64560500      -1.46904700       0.00777700
C        1.86805800       3.52983300       0.10418700
C        3.26457400       3.34539700       0.13880400
C        4.95087500      -0.56291500       0.09346700
N        5.75909100       0.57580800       0.14293500
O        6.06925500       2.83065500       0.20492200
O        5.48910000      -1.68427500       0.08194900
C       -1.02041300       3.90352800       0.03216900
C       -2.41794600       4.08003500      -0.00262400
C       -2.70602800       1.67000700      -0.06716000
C       -3.25245200       2.98347100      -0.05156500
C       -3.56691500       0.53850500      -0.11766500
C       -3.03687800      -0.73433100      -0.13279200
C       -1.64041100      -0.91883000      -0.09829200
C       -4.72314700       3.17392200      -0.08803700
C       -5.03773600       0.72818300      -0.15412500
N       -5.53143900       2.03522700      -0.13722100
O       -5.26133100       4.29529300      -0.07673500
O       -5.84203300      -0.21964700      -0.19870900
H        0.62972700      -2.20233100      -0.06573200
H        3.07286500      -2.48716200      -0.00439800
H        1.49989900       4.56697900       0.11841200
H        3.93550500       4.22152900       0.17822500
H        6.75033500       0.44779700       0.16755800
H       -0.40199700       4.81321100       0.07071000
H       -2.84532000       5.09816700       0.00933800
H       -3.70773700      -1.61056600      -0.17200800
H       -1.27202900      -1.95588300      -0.11238600
H       -6.52266300       2.16338500      -0.16179200
C        1.94630458      14.60448670       4.03206014
C        1.90526835      14.53596986       2.60252324
C        1.94322934      13.22949022       1.95381449
C        2.02342907      13.42662453       4.84235922
C        2.06120842      12.12015327       4.19380474
C        2.02028761      12.05170032       2.76425681
C        2.05710666      10.78172183       2.13339136
C        2.13359006       9.59951154       2.92122997
C        2.01745936      10.69296430       0.71405271
C        2.05596935       9.36507003       0.05391649
C        2.13564866      10.94562414       4.92729371
C        2.17199146       9.68592440       4.29688913
C        1.90650816      13.10184934       0.57349673
C        1.94330384      11.83861818      -0.04969266
C        2.17209962       8.27135859       2.26177456
N        2.13108084       8.23029124       0.86571540
O        2.02442962       9.22165626      -1.18128241
O        2.23879061       7.20262606       2.89472808
C        1.83055778      15.71032278       1.86894920
C        1.79417839      16.97000800       2.49929312
C        1.90953034      15.87432791       4.66298676
C        1.83283253      17.05629854       3.87490495
C        1.94940972      15.96319494       6.08231275
C        2.02371661      14.81735585       6.84573321
C        2.06040064      13.55412663       6.22263094
C        1.79434451      18.38453633       4.53433547
C        1.91099158      17.29111038       6.74245373
N        1.83564506      18.42569210       5.93039485
O        1.72743697      19.45323346       3.90136430
O        1.94279939      17.43468706       7.97762056
H        2.16896731      10.95565447       6.02739470
H        2.23132630       8.76664692       4.90571240
H        1.84733873      13.98253270      -0.08400689
H        1.91270345      11.76620719      -1.15111445
H        2.15703659       7.33525932       0.42096610
H        1.79703539      15.70015313       0.76884932
H        1.73463080      17.88938251       1.89053292
H        2.05452843      14.88965691       7.94718709
H        2.11969206      12.67331357       6.87992520
H        1.80973019      19.32079047       6.37500767
