80
Dimer: struct; Energy: -4906.06228 eV
C       -1.29972200       1.48833600      -0.03228100
C       -0.45010500       2.63965400       0.01843500
C        0.99654200       2.45238200       0.05441800
C       -0.76903400       0.15867800      -0.04877100
C        0.67752200      -0.02870400      -0.01297900
C        1.52709100       1.12265000       0.03785500
C        2.93347700       0.94084900       0.07277000
C        3.48023700      -0.37253000       0.05696900
C        3.79427800       2.07240500       0.12351100
C        5.26507800       1.88272800       0.16006300
C        1.24802600      -1.29258500      -0.02698300
C        2.64560500      -1.46904700       0.00777700
C        1.86805800       3.52983300       0.10418700
C        3.26457400       3.34539700       0.13880400
C        4.95087500      -0.56291500       0.09346700
N        5.75909100       0.57580800       0.14293500
O        6.06925500       2.83065500       0.20492200
O        5.48910000      -1.68427500       0.08194900
C       -1.02041300       3.90352800       0.03216900
C       -2.41794600       4.08003500      -0.00262400
C       -2.70602800       1.67000700      -0.06716000
C       -3.25245200       2.98347100      -0.05156500
C       -3.56691500       0.53850500      -0.11766500
C       -3.03687800      -0.73433100      -0.13279200
C       -1.64041100      -0.91883000      -0.09829200
C       -4.72314700       3.17392200      -0.08803700
C       -5.03773600       0.72818300      -0.15412500
N       -5.53143900       2.03522700      -0.13722100
O       -5.26133100       4.29529300      -0.07673500
O       -5.84203300      -0.21964700      -0.19870900
H        0.62972700      -2.20233100      -0.06573200
H        3.07286500      -2.48716200      -0.00439800
H        1.49989900       4.56697900       0.11841200
H        3.93550500       4.22152900       0.17822500
H        6.75033500       0.44779700       0.16755800
H       -0.40199700       4.81321100       0.07071000
H       -2.84532000       5.09816700       0.00933800
H       -3.70773700      -1.61056600      -0.17200800
H       -1.27202900      -1.95588300      -0.11238600
H       -6.52266300       2.16338500      -0.16179200
C        9.40601428       7.64750371       0.82367931
C        8.84498756       8.67652406       0.00129228
C        9.13481092      10.07181356       0.31485688
C       10.24346758       7.94983567       1.94491052
C       10.53349475       9.34500498       2.25844549
C        9.97234460      10.37399175       1.43609255
C       10.25401099      11.73048785       1.74068184
C       11.08415541      12.05136241       2.85066397
C        9.70569886      12.76726381       0.93543566
C        9.99998235      14.18596556       1.25363153
C       11.33793933       9.69751366       3.33160561
C       11.61543503      11.04621080       3.63091532
C        8.61921032      11.11016490      -0.44599807
C        8.90113572      12.45649387      -0.14040311
C       11.37885585      13.46978464       3.16938752
N       10.81977859      14.45590393       2.35247161
O        9.55103031      15.13640019       0.58850399
O       12.09659366      13.81414876       4.12517665
C        8.04079589       8.32418944      -1.07199864
C        7.76330865       6.97554281      -1.37135940
C        9.12440329       6.29106731       0.51922405
C        8.29442878       5.97052392      -0.59091303
C        9.67248014       5.25423107       1.32455400
C       10.47686986       5.56536530       2.40039423
C       10.75891866       6.91162800       2.70596815
C        7.99966172       4.55205816      -0.90968071
C        9.37811802       3.83551484       1.00640828
N        8.55848065       3.56588730      -0.09263130
O        7.28209979       4.20772205      -1.86559922
O        9.82677387       2.88499610       1.67160385
H       11.78802311       8.93670165       3.98736670
H       12.25939858      11.29831798       4.49173493
H        7.97165575      10.91949075      -1.31532637
H        8.47714095      13.26361590      -0.76337355
H       11.01821975      15.41200628       2.56705769
H        7.59093421       9.08509259      -1.72781705
H        7.11949223       6.72331227      -2.23232663
H       10.90076602       4.75831061       3.02357338
H       11.40634737       7.10254552       3.57531815
H        8.35991768       2.60983224      -0.30730477
