80
Dimer: struct; Energy: -4906.06228 eV
C       -1.29972200       1.48833600      -0.03228100
C       -0.45010500       2.63965400       0.01843500
C        0.99654200       2.45238200       0.05441800
C       -0.76903400       0.15867800      -0.04877100
C        0.67752200      -0.02870400      -0.01297900
C        1.52709100       1.12265000       0.03785500
C        2.93347700       0.94084900       0.07277000
C        3.48023700      -0.37253000       0.05696900
C        3.79427800       2.07240500       0.12351100
C        5.26507800       1.88272800       0.16006300
C        1.24802600      -1.29258500      -0.02698300
C        2.64560500      -1.46904700       0.00777700
C        1.86805800       3.52983300       0.10418700
C        3.26457400       3.34539700       0.13880400
C        4.95087500      -0.56291500       0.09346700
N        5.75909100       0.57580800       0.14293500
O        6.06925500       2.83065500       0.20492200
O        5.48910000      -1.68427500       0.08194900
C       -1.02041300       3.90352800       0.03216900
C       -2.41794600       4.08003500      -0.00262400
C       -2.70602800       1.67000700      -0.06716000
C       -3.25245200       2.98347100      -0.05156500
C       -3.56691500       0.53850500      -0.11766500
C       -3.03687800      -0.73433100      -0.13279200
C       -1.64041100      -0.91883000      -0.09829200
C       -4.72314700       3.17392200      -0.08803700
C       -5.03773600       0.72818300      -0.15412500
N       -5.53143900       2.03522700      -0.13722100
O       -5.26133100       4.29529300      -0.07673500
O       -5.84203300      -0.21964700      -0.19870900
H        0.62972700      -2.20233100      -0.06573200
H        3.07286500      -2.48716200      -0.00439800
H        1.49989900       4.56697900       0.11841200
H        3.93550500       4.22152900       0.17822500
H        6.75033500       0.44779700       0.16755800
H       -0.40199700       4.81321100       0.07071000
H       -2.84532000       5.09816700       0.00933800
H       -3.70773700      -1.61056600      -0.17200800
H       -1.27202900      -1.95588300      -0.11238600
H       -6.52266300       2.16338500      -0.16179200
C        8.72991200       3.69157176       0.24906942
C        9.87263200       3.44314795      -0.57702435
C       10.84617640       2.44033485      -0.15782236
C        8.51618392       2.98318414       1.47479343
C        9.48951132       1.98027292       1.89398336
C       10.63227666       1.73197223       1.06790724
C       11.57880474       0.75708778       1.47518744
C       11.38412689       0.04241823       2.68989256
C       12.72085635       0.49608849       0.66798891
C       13.71095522      -0.52330621       1.09355294
C        9.33459571       1.26331910       3.07086249
C       10.27707907       0.29564952       3.47200444
C       11.97157381       2.15767363      -0.91709903
C       12.90970980       1.18860181      -0.50933369
C       12.37376895      -0.97708367       3.11601360
N       13.48060985      -1.20151570       2.29328415
O       14.72846180      -0.79660574       0.43229180
O       12.25977830      -1.63428130       4.16594906
C       10.02753878       4.15978081      -1.75399442
C        9.08509031       5.12740786      -2.15518332
C        7.78340353       4.66639387      -0.15806822
C        7.97824797       5.38071514      -1.37288954
C        6.64144183       4.92762805       0.64918275
C        6.45298546       4.23504331       1.82650603
C        7.39099529       3.26590792       2.23426133
C        6.98860819       6.40029035      -1.79906443
C        5.65137817       5.94710074       0.22365852
N        5.88187891       6.62497704      -0.97623545
O        7.10251611       7.05731389      -2.84910621
O        4.63397717       6.22069604       0.88494812
H        8.47036900       1.42459137       3.73308328
H       10.12865634      -0.26061856       4.41423266
H       12.17182278       2.68014495      -1.86490665
H       13.79721953       0.98360354      -1.13352268
H       14.14780132      -1.88858860       2.58024086
H       10.89170898       3.99826970      -2.41624131
H        9.23332353       5.68361045      -3.09754736
H        5.56559299       4.44010817       2.45089410
H        7.19101793       2.74339955       3.18208881
H        5.21479460       7.31210959      -1.26329050
