80
Dimer: struct; Energy: -4906.06228 eV
C       -1.29972200       1.48833600      -0.03228100
C       -0.45010500       2.63965400       0.01843500
C        0.99654200       2.45238200       0.05441800
C       -0.76903400       0.15867800      -0.04877100
C        0.67752200      -0.02870400      -0.01297900
C        1.52709100       1.12265000       0.03785500
C        2.93347700       0.94084900       0.07277000
C        3.48023700      -0.37253000       0.05696900
C        3.79427800       2.07240500       0.12351100
C        5.26507800       1.88272800       0.16006300
C        1.24802600      -1.29258500      -0.02698300
C        2.64560500      -1.46904700       0.00777700
C        1.86805800       3.52983300       0.10418700
C        3.26457400       3.34539700       0.13880400
C        4.95087500      -0.56291500       0.09346700
N        5.75909100       0.57580800       0.14293500
O        6.06925500       2.83065500       0.20492200
O        5.48910000      -1.68427500       0.08194900
C       -1.02041300       3.90352800       0.03216900
C       -2.41794600       4.08003500      -0.00262400
C       -2.70602800       1.67000700      -0.06716000
C       -3.25245200       2.98347100      -0.05156500
C       -3.56691500       0.53850500      -0.11766500
C       -3.03687800      -0.73433100      -0.13279200
C       -1.64041100      -0.91883000      -0.09829200
C       -4.72314700       3.17392200      -0.08803700
C       -5.03773600       0.72818300      -0.15412500
N       -5.53143900       2.03522700      -0.13722100
O       -5.26133100       4.29529300      -0.07673500
O       -5.84203300      -0.21964700      -0.19870900
H        0.62972700      -2.20233100      -0.06573200
H        3.07286500      -2.48716200      -0.00439800
H        1.49989900       4.56697900       0.11841200
H        3.93550500       4.22152900       0.17822500
H        6.75033500       0.44779700       0.16755800
H       -0.40199700       4.81321100       0.07071000
H       -2.84532000       5.09816700       0.00933800
H       -3.70773700      -1.61056600      -0.17200800
H       -1.27202900      -1.95588300      -0.11238600
H       -6.52266300       2.16338500      -0.16179200
C        8.62154947       7.55007786       0.56763559
C        8.55290887       6.12510825       0.68889717
C        8.77289516       5.51315557       1.99514105
C        8.89992164       8.39087922       1.69255962
C        9.11973137       7.77908619       2.99881776
C        9.05119470       6.35410007       3.11999903
C        9.26494695       5.75896662       4.38977003
C        9.54274509       6.57747274       5.51983043
C        9.20105220       4.34472082       4.53047631
C        9.42455052       3.72194619       5.85816841
C        9.39286811       8.54313742       4.12340130
C        9.60458882       7.94818554       5.38307616
C        8.71889674       4.13891432       2.17251891
C        8.93180022       3.55125768       3.43537428
C        9.76630096       5.95538571       6.84775557
N        9.69437933       4.56307760       6.94079136
O        9.38200277       2.49297800       6.04553294
O       10.01287296       6.61621317       7.87234153
C        8.27952976       5.36098565      -0.43546836
C        8.06777349       5.95587850      -1.69512130
C        8.40786417       8.14527493      -0.70200866
C        8.12988435       7.32653949      -1.83179164
C        8.47197107       9.55949759      -0.84285799
C        8.74139216      10.35263661       0.25241472
C        8.95418740       9.76507049       1.51528227
C        7.90633608       7.94859855      -3.15980304
C        8.24856036      10.18227345      -2.17058513
N        7.97852254       9.34089540      -3.25296905
O        7.65955511       7.28776133      -4.18432049
O        8.29134713      11.41119644      -2.35815032
H        9.45394473       9.64088968       4.07199564
H        9.82036370       8.58086346       6.26194892
H        8.50787918       3.45869913       1.33335617
H        8.88292255       2.45388379       3.54802961
H        9.84502691       4.14351074       7.83568059
H        8.21827324       4.26324494      -0.38389411
H        7.85177530       5.32326757      -2.57405963
H        8.79049638      11.45003899       0.13983473
H        9.16533967      10.44507635       2.35456150
H        7.82790148       9.76032271      -4.14792562
