80
Dimer: struct; Energy: -4906.06228 eV
C       -1.29972200       1.48833600      -0.03228100
C       -0.45010500       2.63965400       0.01843500
C        0.99654200       2.45238200       0.05441800
C       -0.76903400       0.15867800      -0.04877100
C        0.67752200      -0.02870400      -0.01297900
C        1.52709100       1.12265000       0.03785500
C        2.93347700       0.94084900       0.07277000
C        3.48023700      -0.37253000       0.05696900
C        3.79427800       2.07240500       0.12351100
C        5.26507800       1.88272800       0.16006300
C        1.24802600      -1.29258500      -0.02698300
C        2.64560500      -1.46904700       0.00777700
C        1.86805800       3.52983300       0.10418700
C        3.26457400       3.34539700       0.13880400
C        4.95087500      -0.56291500       0.09346700
N        5.75909100       0.57580800       0.14293500
O        6.06925500       2.83065500       0.20492200
O        5.48910000      -1.68427500       0.08194900
C       -1.02041300       3.90352800       0.03216900
C       -2.41794600       4.08003500      -0.00262400
C       -2.70602800       1.67000700      -0.06716000
C       -3.25245200       2.98347100      -0.05156500
C       -3.56691500       0.53850500      -0.11766500
C       -3.03687800      -0.73433100      -0.13279200
C       -1.64041100      -0.91883000      -0.09829200
C       -4.72314700       3.17392200      -0.08803700
C       -5.03773600       0.72818300      -0.15412500
N       -5.53143900       2.03522700      -0.13722100
O       -5.26133100       4.29529300      -0.07673500
O       -5.84203300      -0.21964700      -0.19870900
H        0.62972700      -2.20233100      -0.06573200
H        3.07286500      -2.48716200      -0.00439800
H        1.49989900       4.56697900       0.11841200
H        3.93550500       4.22152900       0.17822500
H        6.75033500       0.44779700       0.16755800
H       -0.40199700       4.81321100       0.07071000
H       -2.84532000       5.09816700       0.00933800
H       -3.70773700      -1.61056600      -0.17200800
H       -1.27202900      -1.95588300      -0.11238600
H       -6.52266300       2.16338500      -0.16179200
C        1.65296354      -0.77138373       8.11466373
C        1.91468621      -0.85358209       6.70942391
C        1.92375980       0.37158138       5.91693083
C        1.40007998       0.47958606       8.76352161
C        1.40930897       1.70476848       7.97120840
C        1.67092218       1.62249868       6.56594764
C        1.67986655       2.81340772       5.79533238
C        1.43095333       4.06633291       6.42173580
C        1.93776504       2.75230471       4.39757461
C        1.94718416       3.99746948       3.59132276
C        1.17125718       2.94438827       8.54543851
C        1.18103332       4.12517312       7.77652647
C        2.17101115       0.35306285       4.55258425
C        2.17906008       1.53809615       3.79028300
C        1.44025521       5.31182714       5.61612280
N        1.69787121       5.20595863       4.24689816
O        2.16590480       4.00979289       2.36686860
O        1.23007986       6.43616915       6.10494632
C        2.15301064      -2.09302001       6.13513091
C        2.14327950      -3.27379475       6.90398725
C        1.64395955      -1.96215266       8.88531654
C        1.89311235      -3.21485321       8.25867924
C        1.38583868      -1.90117348      10.28303937
C        1.14443740      -0.68682478      10.88996786
C        1.15258292       0.49822253      10.12776923
C        1.88379671      -4.46043557       9.06427428
C        1.37632908      -3.14636420      11.08928444
N        1.62590637      -4.35467156      10.43346670
O        2.09418701      -5.58473146       8.57546209
O        1.15735583      -3.15886867      12.31368530
H        0.96632907       3.04991749       9.62168243
H        0.98821137       5.09904107       8.25990874
H        2.36967216      -0.58770801       4.01695452
H        2.37887865       1.49417740       2.70517776
H        1.70418976       6.04525012       3.70366005
H        2.35813372      -2.19839871       5.05890289
H        2.33630558      -4.24773961       6.42071019
H        0.94440053      -0.64280607      11.97506005
H        0.95382888       1.43909251      10.66316010
H        1.61957170      -5.19404600      10.97657226
