80
Dimer: struct; Energy: -4906.06228 eV
C       -1.29972200       1.48833600      -0.03228100
C       -0.45010500       2.63965400       0.01843500
C        0.99654200       2.45238200       0.05441800
C       -0.76903400       0.15867800      -0.04877100
C        0.67752200      -0.02870400      -0.01297900
C        1.52709100       1.12265000       0.03785500
C        2.93347700       0.94084900       0.07277000
C        3.48023700      -0.37253000       0.05696900
C        3.79427800       2.07240500       0.12351100
C        5.26507800       1.88272800       0.16006300
C        1.24802600      -1.29258500      -0.02698300
C        2.64560500      -1.46904700       0.00777700
C        1.86805800       3.52983300       0.10418700
C        3.26457400       3.34539700       0.13880400
C        4.95087500      -0.56291500       0.09346700
N        5.75909100       0.57580800       0.14293500
O        6.06925500       2.83065500       0.20492200
O        5.48910000      -1.68427500       0.08194900
C       -1.02041300       3.90352800       0.03216900
C       -2.41794600       4.08003500      -0.00262400
C       -2.70602800       1.67000700      -0.06716000
C       -3.25245200       2.98347100      -0.05156500
C       -3.56691500       0.53850500      -0.11766500
C       -3.03687800      -0.73433100      -0.13279200
C       -1.64041100      -0.91883000      -0.09829200
C       -4.72314700       3.17392200      -0.08803700
C       -5.03773600       0.72818300      -0.15412500
N       -5.53143900       2.03522700      -0.13722100
O       -5.26133100       4.29529300      -0.07673500
O       -5.84203300      -0.21964700      -0.19870900
H        0.62972700      -2.20233100      -0.06573200
H        3.07286500      -2.48716200      -0.00439800
H        1.49989900       4.56697900       0.11841200
H        3.93550500       4.22152900       0.17822500
H        6.75033500       0.44779700       0.16755800
H       -0.40199700       4.81321100       0.07071000
H       -2.84532000       5.09816700       0.00933800
H       -3.70773700      -1.61056600      -0.17200800
H       -1.27202900      -1.95588300      -0.11238600
H       -6.52266300       2.16338500      -0.16179200
C        5.34798127       4.83316424       3.29662687
C        6.26304692       4.90927380       2.19807488
C        7.56708819       4.26518467       2.31545745
C        5.67714815       4.14253024       4.50681939
C        6.98101664       3.49828158       4.62424147
C        7.89609121       3.57452280       3.52569997
C        9.16384110       2.94839133       3.63955015
C        9.50960936       2.25709685       4.83400267
C       10.08689429       3.01307196       2.55892014
C       11.41277300       2.35844827       2.67757728
C        7.35439614       2.81533213       5.77194959
C        8.61468974       2.19460553       5.88118635
C        8.49356322       4.30610134       1.28449305
C        9.75196935       3.68298773       1.40117795
C       10.83524231       1.60225507       4.95330977
N       11.71094761       1.69049994       3.86808937
O       12.26219738       2.37955106       1.76911073
O       11.19590759       0.98355203       5.97036148
C        5.88973321       5.59191129       1.05026816
C        4.62947259       6.21260608       0.94097545
C        4.08030447       5.45924792       3.18290697
C        3.73476501       6.15025646       1.98828580
C        3.15727621       5.39482026       4.26357430
C        3.49258774       4.72495654       5.42121341
C        4.75089461       4.10174386       5.53791810
C        2.40909830       6.80516662       1.86892903
C        1.83141638       6.04953045       4.14494983
N        1.53344388       6.71720197       2.95422755
O        2.04838263       7.42367462       0.85178856
O        0.98200686       6.02874239       5.05342901
H        6.67990033       2.73391665       6.63789407
H        8.88584992       1.65734189       6.80697112
H        8.27881545       4.82662507       0.33879032
H       10.47073507       3.73130783       0.56430837
H       12.60449810       1.24924690       3.94822087
H        6.56424266       5.67308119       0.18430317
H        4.35812357       6.74974466       0.01510491
H        2.77396019       4.67674322       6.25824830
H        4.96590816       3.58126774       6.48356954
H        0.63994883       7.15854032       2.87397621
