80
Dimer: struct; Energy: -4906.06228 eV
C       -1.29972200       1.48833600      -0.03228100
C       -0.45010500       2.63965400       0.01843500
C        0.99654200       2.45238200       0.05441800
C       -0.76903400       0.15867800      -0.04877100
C        0.67752200      -0.02870400      -0.01297900
C        1.52709100       1.12265000       0.03785500
C        2.93347700       0.94084900       0.07277000
C        3.48023700      -0.37253000       0.05696900
C        3.79427800       2.07240500       0.12351100
C        5.26507800       1.88272800       0.16006300
C        1.24802600      -1.29258500      -0.02698300
C        2.64560500      -1.46904700       0.00777700
C        1.86805800       3.52983300       0.10418700
C        3.26457400       3.34539700       0.13880400
C        4.95087500      -0.56291500       0.09346700
N        5.75909100       0.57580800       0.14293500
O        6.06925500       2.83065500       0.20492200
O        5.48910000      -1.68427500       0.08194900
C       -1.02041300       3.90352800       0.03216900
C       -2.41794600       4.08003500      -0.00262400
C       -2.70602800       1.67000700      -0.06716000
C       -3.25245200       2.98347100      -0.05156500
C       -3.56691500       0.53850500      -0.11766500
C       -3.03687800      -0.73433100      -0.13279200
C       -1.64041100      -0.91883000      -0.09829200
C       -4.72314700       3.17392200      -0.08803700
C       -5.03773600       0.72818300      -0.15412500
N       -5.53143900       2.03522700      -0.13722100
O       -5.26133100       4.29529300      -0.07673500
O       -5.84203300      -0.21964700      -0.19870900
H        0.62972700      -2.20233100      -0.06573200
H        3.07286500      -2.48716200      -0.00439800
H        1.49989900       4.56697900       0.11841200
H        3.93550500       4.22152900       0.17822500
H        6.75033500       0.44779700       0.16755800
H       -0.40199700       4.81321100       0.07071000
H       -2.84532000       5.09816700       0.00933800
H       -3.70773700      -1.61056600      -0.17200800
H       -1.27202900      -1.95588300      -0.11238600
H       -6.52266300       2.16338500      -0.16179200
C        4.38672612      10.69790941       2.83926638
C        4.09054058       9.36261638       2.41592143
C        2.70934312       9.00593988       2.10895469
C        3.36521322      11.69261051       2.96954749
C        1.98408215      11.33612115       2.66244872
C        1.68793597      10.00077767       2.23921965
C        0.34529523       9.65381829       1.94067772
C       -0.68404405      10.62821196       2.06387749
C        0.03092621       8.33206160       1.51865477
C       -1.37302920       7.96880061       1.20637810
C        0.95354244      12.25774408       2.77045417
C       -0.37896990      11.90921860       2.47293947
C        2.36321935       7.72859706       1.69481534
C        1.02839833       7.38755174       1.39915868
C       -2.08813726      10.26565148       1.75174475
N       -2.35215764       8.95653074       1.34083554
O       -1.71130589       6.83144992       0.83317460
O       -3.03137977      11.07173766       1.83998138
C        5.12094396       8.44101166       2.30761193
C        6.45343875       8.78949097       2.60507381
C        5.72923584      11.04494476       3.13784902
C        6.75834098      10.07041905       3.01434876
C        6.04366718      12.36661295       3.56010498
C        5.04593434      13.31081688       3.67963597
C        3.71114975      12.96987993       3.38389571
C        8.16250845      10.43293341       3.32650678
C        7.44762738      12.72985276       3.87247349
N        8.42656390      11.74197068       3.73769710
O        9.10575266       9.62688806       3.23805386
O        7.78600848      13.86707716       4.24594639
H        1.13976057      13.29370047       3.09224619
H       -1.17998058      12.66332510       2.56761136
H        3.11870433       6.93611712       1.58241779
H        0.78098797       6.36254309       1.07135525
H       -3.29842354       8.71187275       1.13040483
H        4.93462758       7.40513235       1.98560700
H        7.25459225       8.03547391       2.51022798
H        5.29320542      14.33582951       4.00763536
H        2.95548234      13.76215918       3.49633775
H        9.37286424      11.98647575       3.94813987
