80
Dimer: struct; Energy: -4906.06228 eV
C       -1.29972200       1.48833600      -0.03228100
C       -0.45010500       2.63965400       0.01843500
C        0.99654200       2.45238200       0.05441800
C       -0.76903400       0.15867800      -0.04877100
C        0.67752200      -0.02870400      -0.01297900
C        1.52709100       1.12265000       0.03785500
C        2.93347700       0.94084900       0.07277000
C        3.48023700      -0.37253000       0.05696900
C        3.79427800       2.07240500       0.12351100
C        5.26507800       1.88272800       0.16006300
C        1.24802600      -1.29258500      -0.02698300
C        2.64560500      -1.46904700       0.00777700
C        1.86805800       3.52983300       0.10418700
C        3.26457400       3.34539700       0.13880400
C        4.95087500      -0.56291500       0.09346700
N        5.75909100       0.57580800       0.14293500
O        6.06925500       2.83065500       0.20492200
O        5.48910000      -1.68427500       0.08194900
C       -1.02041300       3.90352800       0.03216900
C       -2.41794600       4.08003500      -0.00262400
C       -2.70602800       1.67000700      -0.06716000
C       -3.25245200       2.98347100      -0.05156500
C       -3.56691500       0.53850500      -0.11766500
C       -3.03687800      -0.73433100      -0.13279200
C       -1.64041100      -0.91883000      -0.09829200
C       -4.72314700       3.17392200      -0.08803700
C       -5.03773600       0.72818300      -0.15412500
N       -5.53143900       2.03522700      -0.13722100
O       -5.26133100       4.29529300      -0.07673500
O       -5.84203300      -0.21964700      -0.19870900
H        0.62972700      -2.20233100      -0.06573200
H        3.07286500      -2.48716200      -0.00439800
H        1.49989900       4.56697900       0.11841200
H        3.93550500       4.22152900       0.17822500
H        6.75033500       0.44779700       0.16755800
H       -0.40199700       4.81321100       0.07071000
H       -2.84532000       5.09816700       0.00933800
H       -3.70773700      -1.61056600      -0.17200800
H       -1.27202900      -1.95588300      -0.11238600
H       -6.52266300       2.16338500      -0.16179200
C        2.29936822      10.64714596       1.35675313
C        2.05851996       9.87551343       2.53850169
C        2.03526320      10.54904255       3.83270830
C        2.51785204      12.06112119       1.40995970
C        2.49443708      12.73475179       2.70401955
C        2.25369999      11.96304949       3.88575083
C        2.23097283      12.61760631       5.14401594
C        2.44575319      14.02209828       5.21771987
C        1.99341588      11.86809904       6.32967083
C        1.96959326      12.55221364       7.64572013
C        2.69934034      14.10165362       2.81653691
C        2.67596481      14.74823022       4.06832221
C        1.80702769       9.85330892       5.01032497
C        1.78520232      10.50688466       6.25845731
C        2.42203236      14.70681755       6.53337617
N        2.18528190      13.93249043       7.67211099
O        1.76734787      11.95305410       8.71687989
O        2.60257903      15.93066291       6.66327035
C        1.85334131       8.50873199       2.42612931
C        1.87667239       7.86213557       1.17439752
C        2.32215161       9.99273093       0.09852448
C        2.10713036       8.58831291       0.02513528
C        2.55993388      10.74211875      -1.08716159
C        2.76825573      12.10327826      -1.01556330
C        2.74633213      12.75691449       0.23248688
C        2.13086698       7.90350849      -1.29054897
C        2.58384757      10.05798044      -2.40321797
N        2.36789426       8.67773557      -2.42930787
O        1.95010433       6.67970356      -1.42042984
O        2.78634992      10.65696246      -3.47442125
H        2.88741213      14.72975029       1.93248007
H        2.84230402      15.83816055       4.12865989
H        1.63488756       8.76621145       5.01177429
H        1.60110347       9.92809484       7.18063932
H        2.16925198      14.39371496       8.55900036
H        1.66507131       7.88076923       3.31024701
H        1.71012925       6.77218533       1.11393072
H        2.95257096      12.68215386      -1.93768498
H        2.91856648      13.84398246       0.23129406
H        2.38394381       8.21637389      -3.31612297
