80
Dimer: struct; Energy: -4906.06228 eV
C       -1.29972200       1.48833600      -0.03228100
C       -0.45010500       2.63965400       0.01843500
C        0.99654200       2.45238200       0.05441800
C       -0.76903400       0.15867800      -0.04877100
C        0.67752200      -0.02870400      -0.01297900
C        1.52709100       1.12265000       0.03785500
C        2.93347700       0.94084900       0.07277000
C        3.48023700      -0.37253000       0.05696900
C        3.79427800       2.07240500       0.12351100
C        5.26507800       1.88272800       0.16006300
C        1.24802600      -1.29258500      -0.02698300
C        2.64560500      -1.46904700       0.00777700
C        1.86805800       3.52983300       0.10418700
C        3.26457400       3.34539700       0.13880400
C        4.95087500      -0.56291500       0.09346700
N        5.75909100       0.57580800       0.14293500
O        6.06925500       2.83065500       0.20492200
O        5.48910000      -1.68427500       0.08194900
C       -1.02041300       3.90352800       0.03216900
C       -2.41794600       4.08003500      -0.00262400
C       -2.70602800       1.67000700      -0.06716000
C       -3.25245200       2.98347100      -0.05156500
C       -3.56691500       0.53850500      -0.11766500
C       -3.03687800      -0.73433100      -0.13279200
C       -1.64041100      -0.91883000      -0.09829200
C       -4.72314700       3.17392200      -0.08803700
C       -5.03773600       0.72818300      -0.15412500
N       -5.53143900       2.03522700      -0.13722100
O       -5.26133100       4.29529300      -0.07673500
O       -5.84203300      -0.21964700      -0.19870900
H        0.62972700      -2.20233100      -0.06573200
H        3.07286500      -2.48716200      -0.00439800
H        1.49989900       4.56697900       0.11841200
H        3.93550500       4.22152900       0.17822500
H        6.75033500       0.44779700       0.16755800
H       -0.40199700       4.81321100       0.07071000
H       -2.84532000       5.09816700       0.00933800
H       -3.70773700      -1.61056600      -0.17200800
H       -1.27202900      -1.95588300      -0.11238600
H       -6.52266300       2.16338500      -0.16179200
C        8.90393351       7.34220304       3.84846677
C        8.82723761       5.94268120       4.14071780
C        8.82497097       4.98706706       3.03801676
C        8.97856099       7.82970467       2.50434439
C        8.97648750       6.87422967       1.40162930
C        8.89967149       5.47472096       1.69393444
C        8.89752504       4.54552914       0.62211813
C        8.97117159       5.01021045      -0.72056874
C        8.82172970       3.15079329       0.89219029
C        8.81943074       2.17874423      -0.22838161
C        9.04698222       7.28828580       0.08001887
C        9.04463307       6.36212060      -0.98195413
C        8.75231085       3.62029062       3.26063842
C        8.75037442       2.70021951       2.19342836
C        8.96894930       4.03875256      -1.84155906
N        8.89318834       2.67851405      -1.53113717
O        8.75512894       0.94832815      -0.05744269
O        9.03118432       4.38218643      -3.03547993
C        8.75701656       5.52848055       5.46220339
C        8.75939790       6.45458114       6.52418069
C        8.90605020       8.27142191       4.92013149
C        8.83261264       7.80643101       6.26266658
C        8.98160618       9.66618851       4.65014747
C        9.05279612      10.11641157       3.34879789
C        9.05097797       9.19641774       2.28157801
C        8.83480550       8.77788787       7.38374300
C        8.98381279      10.63825354       5.77073044
N        8.91028026      10.13816743       7.07338130
O        8.77278665       8.43441383       8.57765335
O        9.04783406      11.86869758       5.59993279
H        9.10724697       8.35454814      -0.18622483
H        9.10171281       6.71978326      -2.02506333
H        8.69359005       3.20585376       4.27858203
H        8.69163711       1.61700216       2.39958318
H        8.89165661       2.02352118      -2.28647800
H        8.69696410       4.46217058       5.72833054
H        8.70252825       6.09699013       7.56738676
H        9.11133368      11.19964572       3.14251027
H        9.10956865       9.61062755       1.26355040
H        8.91175507      10.79304817       7.82881646
