80
Dimer: struct; Energy: -4906.06228 eV
C       -1.29972200       1.48833600      -0.03228100
C       -0.45010500       2.63965400       0.01843500
C        0.99654200       2.45238200       0.05441800
C       -0.76903400       0.15867800      -0.04877100
C        0.67752200      -0.02870400      -0.01297900
C        1.52709100       1.12265000       0.03785500
C        2.93347700       0.94084900       0.07277000
C        3.48023700      -0.37253000       0.05696900
C        3.79427800       2.07240500       0.12351100
C        5.26507800       1.88272800       0.16006300
C        1.24802600      -1.29258500      -0.02698300
C        2.64560500      -1.46904700       0.00777700
C        1.86805800       3.52983300       0.10418700
C        3.26457400       3.34539700       0.13880400
C        4.95087500      -0.56291500       0.09346700
N        5.75909100       0.57580800       0.14293500
O        6.06925500       2.83065500       0.20492200
O        5.48910000      -1.68427500       0.08194900
C       -1.02041300       3.90352800       0.03216900
C       -2.41794600       4.08003500      -0.00262400
C       -2.70602800       1.67000700      -0.06716000
C       -3.25245200       2.98347100      -0.05156500
C       -3.56691500       0.53850500      -0.11766500
C       -3.03687800      -0.73433100      -0.13279200
C       -1.64041100      -0.91883000      -0.09829200
C       -4.72314700       3.17392200      -0.08803700
C       -5.03773600       0.72818300      -0.15412500
N       -5.53143900       2.03522700      -0.13722100
O       -5.26133100       4.29529300      -0.07673500
O       -5.84203300      -0.21964700      -0.19870900
H        0.62972700      -2.20233100      -0.06573200
H        3.07286500      -2.48716200      -0.00439800
H        1.49989900       4.56697900       0.11841200
H        3.93550500       4.22152900       0.17822500
H        6.75033500       0.44779700       0.16755800
H       -0.40199700       4.81321100       0.07071000
H       -2.84532000       5.09816700       0.00933800
H       -3.70773700      -1.61056600      -0.17200800
H       -1.27202900      -1.95588300      -0.11238600
H       -6.52266300       2.16338500      -0.16179200
C        7.01256831       6.50325095       2.41542714
C        7.49978667       5.98219804       3.65682814
C        8.15567014       4.67882141       3.67021988
C        7.15128262       5.78081868       1.18711853
C        7.80727613       4.47758630       1.20035553
C        8.29437240       3.95652768       2.44180740
C        8.93208621       2.68950852       2.45506625
C        9.07969480       1.95621908       1.24483534
C        9.42274099       2.15474875       3.67869278
C       10.08967558       0.82977348       3.69300477
C        7.96992504       3.73310427       0.04175381
C        8.60401538       2.47484949       0.05903117
C        8.64692072       4.12419283       4.84238785
C        9.27980914       2.86528982       4.85173613
C        9.74652548       0.63126368       1.25842676
N       10.21334527       0.14393855       2.48192329
O       10.53920823       0.30902249       4.72935287
O        9.90569089      -0.05734788       0.23483135
C        7.33746677       6.72663421       4.81539810
C        6.70343205       7.98487375       4.79816438
C        6.37484918       7.77015783       2.40205890
C        6.22759177       8.50326987       3.61237790
C        5.88395330       8.30489385       1.17851790
C        6.02691955       7.59402064       0.00570101
C        6.65987911       6.33520108       0.01495965
C        5.56071741       9.82827595       3.59884816
C        5.21692881       9.62984495       1.16422136
N        5.09361715      10.31554120       2.37542214
O        5.40176037      10.51695415       4.62241920
O        4.76710900      10.15059232       0.12800351
H        7.60967735       4.09843539      -0.93199549
H        8.72004416       1.90342851      -0.87866435
H        8.55988509       4.64755764       5.80671627
H        9.66175892       2.44734957       5.79976040
H       10.66281672      -0.74905838       2.49139305
H        7.69794551       6.36128532       5.78906241
H        6.58753400       8.55649498       5.73582168
H        5.64481676       8.01178299      -0.94237575
H        6.74691942       5.81160234      -0.94922457
H        4.64412526      11.20852693       2.36610783
