80
Dimer: struct; Energy: -4906.06228 eV
C       -1.29972200       1.48833600      -0.03228100
C       -0.45010500       2.63965400       0.01843500
C        0.99654200       2.45238200       0.05441800
C       -0.76903400       0.15867800      -0.04877100
C        0.67752200      -0.02870400      -0.01297900
C        1.52709100       1.12265000       0.03785500
C        2.93347700       0.94084900       0.07277000
C        3.48023700      -0.37253000       0.05696900
C        3.79427800       2.07240500       0.12351100
C        5.26507800       1.88272800       0.16006300
C        1.24802600      -1.29258500      -0.02698300
C        2.64560500      -1.46904700       0.00777700
C        1.86805800       3.52983300       0.10418700
C        3.26457400       3.34539700       0.13880400
C        4.95087500      -0.56291500       0.09346700
N        5.75909100       0.57580800       0.14293500
O        6.06925500       2.83065500       0.20492200
O        5.48910000      -1.68427500       0.08194900
C       -1.02041300       3.90352800       0.03216900
C       -2.41794600       4.08003500      -0.00262400
C       -2.70602800       1.67000700      -0.06716000
C       -3.25245200       2.98347100      -0.05156500
C       -3.56691500       0.53850500      -0.11766500
C       -3.03687800      -0.73433100      -0.13279200
C       -1.64041100      -0.91883000      -0.09829200
C       -4.72314700       3.17392200      -0.08803700
C       -5.03773600       0.72818300      -0.15412500
N       -5.53143900       2.03522700      -0.13722100
O       -5.26133100       4.29529300      -0.07673500
O       -5.84203300      -0.21964700      -0.19870900
H        0.62972700      -2.20233100      -0.06573200
H        3.07286500      -2.48716200      -0.00439800
H        1.49989900       4.56697900       0.11841200
H        3.93550500       4.22152900       0.17822500
H        6.75033500       0.44779700       0.16755800
H       -0.40199700       4.81321100       0.07071000
H       -2.84532000       5.09816700       0.00933800
H       -3.70773700      -1.61056600      -0.17200800
H       -1.27202900      -1.95588300      -0.11238600
H       -6.52266300       2.16338500      -0.16179200
C        7.07528722       7.64288391       2.35054868
C        7.40639060       6.67566938       3.35295624
C        8.78686424       6.57780027       3.81541409
C        8.06119553       8.51654935       1.78966941
C        9.44159009       8.41890341       2.25215559
C        9.77266092       7.45158830       3.25448348
C       11.11460160       7.35630653       3.70427103
C       12.10883562       8.21574077       3.15926455
C       11.46337853       6.40142224       4.69952107
C       12.86661582       6.30143244       5.17015171
C       10.43848443       9.23883159       1.74521817
C       11.77041706       9.14114102       2.19464690
C        9.16591325       5.66021619       4.78354583
C       10.49993148       5.56839695       5.22788410
C       13.51218871       8.11631056       3.62944367
N       13.81065471       7.16470587       4.60807374
O       13.23397815       5.48810769       6.03665408
O       14.42568070       8.83861004       3.19231337
C        6.40961920       5.85590601       3.86015651
C        5.07770376       5.95358128       3.41079633
C        5.73347601       7.73822098       1.90069204
C        4.73946867       6.87882238       2.44603003
C        5.38464991       8.69291537       0.90527608
C        6.34837076       9.52566815       0.37702949
C        7.68234492       9.43398158       0.82139052
C        3.33604429       6.97819607       1.97584872
C        3.98141243       8.79284350       0.43457400
N        3.03755808       7.92959442       0.99700835
O        2.42254013       6.25603314       2.41315126
O        3.61396188       9.60592574      -0.43210960
H       10.22483312       9.99466862       0.97418222
H       12.54422418       9.80682833       1.77352881
H        8.43834761       4.97131775       5.23904819
H       10.77399729       4.82833560       6.00022265
H       14.75643129       7.09745139       4.92515618
H        6.62335684       5.10024138       4.63134656
H        4.30374339       5.28804616       3.83202401
H        6.07445188      10.26564945      -0.39548174
H        8.41010244      10.12269184       0.36594565
H        2.09175366       7.99670630       0.67998593
